<?xml version="1.0" encoding="UTF-8"?>

<!-- generated on 02/25/19 16:41:52 by Eclipse SUMO GUI Version 1.1.0
<configuration xmlns:xsi="http://www.w3.org/2001/XMLSchema-instance" xsi:noNamespaceSchemaLocation="http://sumo.dlr.de/xsd/sumoConfiguration.xsd">

    <input>
        <net-file value="review1.net.xml"/>
        <route-files value="review2.rou.xml"/>
        <additional-files value="review1.add.xml"/>
    </input>

    <output>
        <tripinfo-output value="tripinfo.xml"/>
    </output>

    <traci_server>
        <remote-port value="53776"/>
    </traci_server>

</configuration>
-->

<tripinfos xmlns:xsi="http://www.w3.org/2001/XMLSchema-instance" xsi:noNamespaceSchemaLocation="http://sumo.dlr.de/xsd/tripinfo_file.xsd">
    <tripinfo id="left_0" depart="0.00" departLane="52o_0" departPos="4.10" departSpeed="0.00" departDelay="0.00" arrival="25.00" arrivalLane="51i_0" arrivalPos="26.01" arrivalSpeed="12.56" duration="25.00" routeLength="159.50" waitingTime="0.00" waitingCount="0" stopTime="0.00" timeLoss="13.81" rerouteNo="0" devices="tripinfo_left_0" vType="typeEW" speedFactor="1.06" vaporized=""/>
    <tripinfo id="right_3" depart="3.00" departLane="51o_0" departPos="5.10" departSpeed="0.00" departDelay="0.00" arrival="26.00" arrivalLane="52i_0" arrivalPos="21.71" arrivalSpeed="13.04" duration="23.00" routeLength="158.55" waitingTime="0.00" waitingCount="0" stopTime="0.00" timeLoss="11.12" rerouteNo="0" devices="tripinfo_right_3" vType="typeWE" speedFactor="1.08" vaporized=""/>
    <tripinfo id="left_2" depart="5.00" departLane="52o_0" departPos="4.10" departSpeed="0.00" departDelay="3.00" arrival="29.00" arrivalLane="51i_0" arrivalPos="26.01" arrivalSpeed="12.24" duration="24.00" routeLength="159.50" waitingTime="0.00" waitingCount="0" stopTime="0.00" timeLoss="12.63" rerouteNo="0" devices="tripinfo_left_2" vType="typeEW" speedFactor="1.01" vaporized=""/>
    <tripinfo id="right_8" depart="11.00" departLane="51o_0" departPos="5.10" departSpeed="0.00" departDelay="0.00" arrival="35.00" arrivalLane="52i_0" arrivalPos="21.71" arrivalSpeed="11.09" duration="24.00" routeLength="158.55" waitingTime="0.00" waitingCount="0" stopTime="0.00" timeLoss="11.11" rerouteNo="0" devices="tripinfo_right_8" vType="typeWE" speedFactor="0.94" vaporized=""/>
    <tripinfo id="left_7" depart="10.00" departLane="52o_0" departPos="4.10" departSpeed="0.00" departDelay="0.00" arrival="35.00" arrivalLane="51i_0" arrivalPos="26.01" arrivalSpeed="10.96" duration="25.00" routeLength="159.50" waitingTime="0.00" waitingCount="0" stopTime="0.00" timeLoss="13.12" rerouteNo="0" devices="tripinfo_left_7" vType="typeEW" speedFactor="0.89" vaporized=""/>
    <tripinfo id="right_10" depart="16.00" departLane="51o_0" departPos="5.10" departSpeed="0.00" departDelay="2.00" arrival="39.00" arrivalLane="52i_0" arrivalPos="21.71" arrivalSpeed="12.85" duration="23.00" routeLength="158.55" waitingTime="0.00" waitingCount="0" stopTime="0.00" timeLoss="11.44" rerouteNo="0" devices="tripinfo_right_10" vType="typeWE" speedFactor="1.09" vaporized=""/>
    <tripinfo id="right_12" depart="22.00" departLane="51o_0" departPos="5.10" departSpeed="0.00" departDelay="0.00" arrival="46.00" arrivalLane="52i_0" arrivalPos="21.71" arrivalSpeed="12.51" duration="24.00" routeLength="158.55" waitingTime="0.00" waitingCount="0" stopTime="0.00" timeLoss="11.87" rerouteNo="0" devices="tripinfo_right_12" vType="typeWE" speedFactor="1.05" vaporized=""/>
    <tripinfo id="up_1" depart="1.00" departLane="53o_0" departPos="4.60" departSpeed="0.00" departDelay="0.00" arrival="58.00" arrivalLane="54i_0" arrivalPos="18.26" arrivalSpeed="8.56" duration="57.00" routeLength="116.05" waitingTime="27.00" waitingCount="1" stopTime="0.00" timeLoss="47.93" rerouteNo="0" devices="tripinfo_up_1" vType="typeSN" speedFactor="0.94" vaporized=""/>
    <tripinfo id="down_5" depart="6.00" departLane="54o_0" departPos="7.10" departSpeed="0.00" departDelay="0.00" arrival="58.00" arrivalLane="53i_0" arrivalPos="21.37" arrivalSpeed="9.19" duration="52.00" routeLength="113.64" waitingTime="24.00" waitingCount="1" stopTime="0.00" timeLoss="42.55" rerouteNo="0" devices="tripinfo_down_5" vType="typeNS" speedFactor="0.83" vaporized=""/>
    <tripinfo id="up_4" depart="6.00" departLane="53o_0" departPos="4.60" departSpeed="0.00" departDelay="2.00" arrival="60.00" arrivalLane="54i_0" arrivalPos="18.26" arrivalSpeed="9.13" duration="54.00" routeLength="116.05" waitingTime="23.00" waitingCount="1" stopTime="0.00" timeLoss="45.27" rerouteNo="0" devices="tripinfo_up_4" vType="typeSN" speedFactor="1.03" vaporized=""/>
    <tripinfo id="down_9" depart="12.00" departLane="54o_0" departPos="7.10" departSpeed="0.00" departDelay="1.00" arrival="61.00" arrivalLane="53i_0" arrivalPos="21.37" arrivalSpeed="9.72" duration="49.00" routeLength="113.64" waitingTime="20.00" waitingCount="1" stopTime="0.00" timeLoss="39.52" rerouteNo="0" devices="tripinfo_down_9" vType="typeNS" speedFactor="0.86" vaporized=""/>
    <tripinfo id="up_6" depart="11.00" departLane="53o_0" departPos="4.60" departSpeed="0.00" departDelay="5.00" arrival="62.00" arrivalLane="54i_0" arrivalPos="18.26" arrivalSpeed="9.52" duration="51.00" routeLength="116.05" waitingTime="21.00" waitingCount="1" stopTime="0.00" timeLoss="42.21" rerouteNo="0" devices="tripinfo_up_6" vType="typeSN" speedFactor="1.05" vaporized=""/>
    <tripinfo id="down_14" depart="22.00" departLane="54o_0" departPos="7.10" departSpeed="0.00" departDelay="0.00" arrival="63.00" arrivalLane="53i_0" arrivalPos="21.37" arrivalSpeed="10.45" duration="41.00" routeLength="113.64" waitingTime="13.00" waitingCount="1" stopTime="0.00" timeLoss="32.73" rerouteNo="0" devices="tripinfo_down_14" vType="typeNS" speedFactor="0.99" vaporized=""/>
    <tripinfo id="up_11" depart="16.00" departLane="53o_0" departPos="4.60" departSpeed="0.00" departDelay="0.00" arrival="64.00" arrivalLane="54i_0" arrivalPos="18.26" arrivalSpeed="10.13" duration="48.00" routeLength="116.05" waitingTime="18.00" waitingCount="1" stopTime="0.00" timeLoss="39.01" rerouteNo="0" devices="tripinfo_up_11" vType="typeSN" speedFactor="1.03" vaporized=""/>
    <tripinfo id="left_13" depart="22.00" departLane="52o_0" departPos="4.10" departSpeed="0.00" departDelay="0.00" arrival="76.00" arrivalLane="51i_0" arrivalPos="26.01" arrivalSpeed="9.08" duration="54.00" routeLength="159.50" waitingTime="19.00" waitingCount="1" stopTime="0.00" timeLoss="43.70" rerouteNo="0" devices="tripinfo_left_13" vType="typeEW" speedFactor="1.12" vaporized=""/>
    <tripinfo id="right_16" depart="27.00" departLane="51o_0" departPos="5.10" departSpeed="0.00" departDelay="2.00" arrival="77.00" arrivalLane="52i_0" arrivalPos="21.71" arrivalSpeed="10.53" duration="50.00" routeLength="158.55" waitingTime="16.00" waitingCount="1" stopTime="0.00" timeLoss="36.76" rerouteNo="0" devices="tripinfo_right_16" vType="typeWE" speedFactor="0.88" vaporized=""/>
    <tripinfo id="left_23" depart="41.00" departLane="52o_0" departPos="4.10" departSpeed="0.00" departDelay="0.00" arrival="79.00" arrivalLane="51i_0" arrivalPos="26.01" arrivalSpeed="9.85" duration="38.00" routeLength="159.50" waitingTime="1.00" waitingCount="1" stopTime="0.00" timeLoss="25.45" rerouteNo="0" devices="tripinfo_left_23" vType="typeEW" speedFactor="0.89" vaporized=""/>
    <tripinfo id="right_17" depart="32.00" departLane="51o_0" departPos="5.10" departSpeed="0.00" departDelay="1.00" arrival="79.00" arrivalLane="52i_0" arrivalPos="21.71" arrivalSpeed="10.64" duration="47.00" routeLength="158.55" waitingTime="14.00" waitingCount="1" stopTime="0.00" timeLoss="34.73" rerouteNo="0" devices="tripinfo_right_17" vType="typeWE" speedFactor="0.94" vaporized=""/>
    <tripinfo id="left_24" depart="46.00" departLane="52o_0" departPos="4.10" departSpeed="0.00" departDelay="4.00" arrival="80.00" arrivalLane="51i_0" arrivalPos="26.01" arrivalSpeed="9.87" duration="34.00" routeLength="159.50" waitingTime="0.00" waitingCount="0" stopTime="0.00" timeLoss="21.35" rerouteNo="0" devices="tripinfo_left_24" vType="typeEW" speedFactor="0.83" vaporized=""/>
    <tripinfo id="right_21" depart="37.00" departLane="51o_0" departPos="5.10" departSpeed="0.00" departDelay="3.00" arrival="81.00" arrivalLane="52i_0" arrivalPos="21.71" arrivalSpeed="11.80" duration="44.00" routeLength="158.55" waitingTime="11.00" waitingCount="1" stopTime="0.00" timeLoss="32.11" rerouteNo="0" devices="tripinfo_right_21" vType="typeWE" speedFactor="1.01" vaporized=""/>
    <tripinfo id="left_28" depart="51.00" departLane="52o_0" departPos="4.10" departSpeed="0.00" departDelay="2.00" arrival="83.00" arrivalLane="51i_0" arrivalPos="26.01" arrivalSpeed="10.42" duration="32.00" routeLength="159.50" waitingTime="0.00" waitingCount="0" stopTime="0.00" timeLoss="21.33" rerouteNo="0" devices="tripinfo_left_28" vType="typeEW" speedFactor="1.13" vaporized=""/>
    <tripinfo id="right_22" depart="42.00" departLane="51o_0" departPos="5.10" departSpeed="0.00" departDelay="2.00" arrival="83.00" arrivalLane="52i_0" arrivalPos="21.71" arrivalSpeed="11.93" duration="41.00" routeLength="158.55" waitingTime="9.00" waitingCount="1" stopTime="0.00" timeLoss="28.68" rerouteNo="0" devices="tripinfo_right_22" vType="typeWE" speedFactor="0.98" vaporized=""/>
    <tripinfo id="right_25" depart="47.00" departLane="51o_0" departPos="5.10" departSpeed="0.00" departDelay="3.00" arrival="85.00" arrivalLane="52i_0" arrivalPos="21.71" arrivalSpeed="10.82" duration="38.00" routeLength="158.55" waitingTime="6.00" waitingCount="1" stopTime="0.00" timeLoss="25.00" rerouteNo="0" devices="tripinfo_right_25" vType="typeWE" speedFactor="0.87" vaporized=""/>
    <tripinfo id="right_27" depart="52.00" departLane="51o_0" departPos="5.10" departSpeed="0.00" departDelay="5.00" arrival="87.00" arrivalLane="52i_0" arrivalPos="21.71" arrivalSpeed="11.78" duration="35.00" routeLength="158.55" waitingTime="4.00" waitingCount="1" stopTime="0.00" timeLoss="22.67" rerouteNo="0" devices="tripinfo_right_27" vType="typeWE" speedFactor="0.95" vaporized=""/>
    <tripinfo id="right_30" depart="56.00" departLane="51o_0" departPos="5.10" departSpeed="0.00" departDelay="0.00" arrival="89.00" arrivalLane="52i_0" arrivalPos="21.71" arrivalSpeed="12.40" duration="33.00" routeLength="158.55" waitingTime="1.00" waitingCount="1" stopTime="0.00" timeLoss="21.91" rerouteNo="0" devices="tripinfo_right_30" vType="typeWE" speedFactor="1.18" vaporized=""/>
    <tripinfo id="right_31" depart="62.00" departLane="51o_0" departPos="5.10" departSpeed="0.00" departDelay="5.00" arrival="91.00" arrivalLane="52i_0" arrivalPos="21.71" arrivalSpeed="13.03" duration="29.00" routeLength="158.55" waitingTime="0.00" waitingCount="0" stopTime="0.00" timeLoss="17.48" rerouteNo="0" devices="tripinfo_right_31" vType="typeWE" speedFactor="1.15" vaporized=""/>
    <tripinfo id="left_36" depart="67.00" departLane="52o_0" departPos="4.10" departSpeed="0.00" departDelay="0.00" arrival="93.00" arrivalLane="51i_0" arrivalPos="26.01" arrivalSpeed="12.55" duration="26.00" routeLength="159.50" waitingTime="0.00" waitingCount="0" stopTime="0.00" timeLoss="14.19" rerouteNo="0" devices="tripinfo_left_36" vType="typeEW" speedFactor="0.97" vaporized=""/>
    <tripinfo id="right_34" depart="69.00" departLane="51o_0" departPos="5.10" departSpeed="0.00" departDelay="6.00" arrival="93.00" arrivalLane="52i_0" arrivalPos="21.71" arrivalSpeed="11.91" duration="24.00" routeLength="158.55" waitingTime="0.00" waitingCount="0" stopTime="0.00" timeLoss="11.56" rerouteNo="0" devices="tripinfo_right_34" vType="typeWE" speedFactor="0.99" vaporized=""/>
    <tripinfo id="down_15" depart="27.00" departLane="54o_0" departPos="7.10" departSpeed="0.00" departDelay="4.00" arrival="106.00" arrivalLane="53i_0" arrivalPos="21.37" arrivalSpeed="9.38" duration="79.00" routeLength="113.64" waitingTime="46.00" waitingCount="3" stopTime="0.00" timeLoss="70.44" rerouteNo="0" devices="tripinfo_down_15" vType="typeNS" speedFactor="0.93" vaporized=""/>
    <tripinfo id="up_19" depart="32.00" departLane="53o_0" departPos="4.60" departSpeed="0.00" departDelay="0.00" arrival="106.00" arrivalLane="54i_0" arrivalPos="18.26" arrivalSpeed="8.44" duration="74.00" routeLength="116.05" waitingTime="37.00" waitingCount="2" stopTime="0.00" timeLoss="65.98" rerouteNo="0" devices="tripinfo_up_19" vType="typeSN" speedFactor="1.16" vaporized=""/>
    <tripinfo id="down_18" depart="34.00" departLane="54o_0" departPos="7.10" departSpeed="0.00" departDelay="3.00" arrival="109.00" arrivalLane="53i_0" arrivalPos="21.37" arrivalSpeed="10.01" duration="75.00" routeLength="113.64" waitingTime="46.00" waitingCount="2" stopTime="0.00" timeLoss="66.31" rerouteNo="0" devices="tripinfo_down_18" vType="typeNS" speedFactor="0.94" vaporized=""/>
    <tripinfo id="up_26" depart="45.00" departLane="53o_0" departPos="4.60" departSpeed="0.00" departDelay="0.00" arrival="109.00" arrivalLane="54i_0" arrivalPos="18.26" arrivalSpeed="8.15" duration="64.00" routeLength="116.05" waitingTime="32.00" waitingCount="1" stopTime="0.00" timeLoss="54.88" rerouteNo="0" devices="tripinfo_up_26" vType="typeSN" speedFactor="0.92" vaporized=""/>
    <tripinfo id="down_20" depart="53.00" departLane="54o_0" departPos="7.10" departSpeed="0.00" departDelay="20.00" arrival="111.00" arrivalLane="53i_0" arrivalPos="21.37" arrivalSpeed="11.07" duration="58.00" routeLength="113.64" waitingTime="31.00" waitingCount="1" stopTime="0.00" timeLoss="50.10" rerouteNo="0" devices="tripinfo_down_20" vType="typeNS" speedFactor="1.02" vaporized=""/>
    <tripinfo id="up_29" depart="51.00" departLane="53o_0" departPos="4.60" departSpeed="0.00" departDelay="0.00" arrival="111.00" arrivalLane="54i_0" arrivalPos="18.26" arrivalSpeed="8.63" duration="60.00" routeLength="116.05" waitingTime="29.00" waitingCount="1" stopTime="0.00" timeLoss="50.74" rerouteNo="0" devices="tripinfo_up_29" vType="typeSN" speedFactor="0.93" vaporized=""/>
    <tripinfo id="up_33" depart="58.00" departLane="53o_0" departPos="4.60" departSpeed="0.00" departDelay="0.00" arrival="113.00" arrivalLane="54i_0" arrivalPos="18.26" arrivalSpeed="9.53" duration="55.00" routeLength="116.05" waitingTime="24.00" waitingCount="1" stopTime="0.00" timeLoss="46.69" rerouteNo="0" devices="tripinfo_up_33" vType="typeSN" speedFactor="1.17" vaporized=""/>
    <tripinfo id="down_32" depart="60.00" departLane="54o_0" departPos="7.10" departSpeed="0.00" departDelay="3.00" arrival="114.00" arrivalLane="53i_0" arrivalPos="21.37" arrivalSpeed="11.04" duration="54.00" routeLength="113.64" waitingTime="29.00" waitingCount="1" stopTime="0.00" timeLoss="45.90" rerouteNo="0" devices="tripinfo_down_32" vType="typeNS" speedFactor="1.01" vaporized=""/>
    <tripinfo id="up_37" depart="68.00" departLane="53o_0" departPos="4.60" departSpeed="0.00" departDelay="0.00" arrival="115.00" arrivalLane="54i_0" arrivalPos="18.26" arrivalSpeed="9.72" duration="47.00" routeLength="116.05" waitingTime="18.00" waitingCount="1" stopTime="0.00" timeLoss="38.59" rerouteNo="0" devices="tripinfo_up_37" vType="typeSN" speedFactor="1.18" vaporized=""/>
    <tripinfo id="down_40" depart="72.00" departLane="54o_0" departPos="7.10" departSpeed="0.00" departDelay="0.00" arrival="116.00" arrivalLane="53i_0" arrivalPos="21.37" arrivalSpeed="11.58" duration="44.00" routeLength="113.64" waitingTime="23.00" waitingCount="1" stopTime="0.00" timeLoss="36.21" rerouteNo="0" devices="tripinfo_down_40" vType="typeNS" speedFactor="1.03" vaporized=""/>
    <tripinfo id="up_39" depart="73.00" departLane="53o_0" departPos="4.60" departSpeed="0.00" departDelay="2.00" arrival="117.00" arrivalLane="54i_0" arrivalPos="18.26" arrivalSpeed="10.68" duration="44.00" routeLength="116.05" waitingTime="14.00" waitingCount="1" stopTime="0.00" timeLoss="34.14" rerouteNo="0" devices="tripinfo_up_39" vType="typeSN" speedFactor="0.90" vaporized=""/>
    <tripinfo id="up_52" depart="93.00" departLane="53o_0" departPos="4.60" departSpeed="0.00" departDelay="0.00" arrival="118.00" arrivalLane="54i_0" arrivalPos="18.26" arrivalSpeed="10.31" duration="25.00" routeLength="116.05" waitingTime="0.00" waitingCount="0" stopTime="0.00" timeLoss="16.49" rerouteNo="0" devices="tripinfo_up_52" vType="typeSN" speedFactor="1.02" vaporized=""/>
    <tripinfo id="down_42" depart="102.00" departLane="54o_0" departPos="7.10" departSpeed="0.00" departDelay="28.00" arrival="121.00" arrivalLane="53i_0" arrivalPos="21.37" arrivalSpeed="11.89" duration="19.00" routeLength="113.64" waitingTime="0.00" waitingCount="0" stopTime="0.00" timeLoss="11.95" rerouteNo="0" devices="tripinfo_down_42" vType="typeNS" speedFactor="1.09" vaporized=""/>
    <tripinfo id="up_55" depart="103.00" departLane="53o_0" departPos="4.60" departSpeed="0.00" departDelay="0.00" arrival="123.00" arrivalLane="54i_0" arrivalPos="18.26" arrivalSpeed="11.37" duration="20.00" routeLength="116.05" waitingTime="0.00" waitingCount="0" stopTime="0.00" timeLoss="11.28" rerouteNo="0" devices="tripinfo_up_55" vType="typeSN" speedFactor="1.00" vaporized=""/>
    <tripinfo id="down_48" depart="109.00" departLane="54o_0" departPos="7.10" departSpeed="0.00" departDelay="24.00" arrival="129.00" arrivalLane="53i_0" arrivalPos="21.37" arrivalSpeed="10.92" duration="20.00" routeLength="113.64" waitingTime="0.00" waitingCount="0" stopTime="0.00" timeLoss="10.87" rerouteNo="0" devices="tripinfo_down_48" vType="typeNS" speedFactor="0.88" vaporized=""/>
    <tripinfo id="up_56" depart="109.00" departLane="53o_0" departPos="4.60" departSpeed="0.00" departDelay="5.00" arrival="129.00" arrivalLane="54i_0" arrivalPos="18.26" arrivalSpeed="10.64" duration="20.00" routeLength="116.05" waitingTime="0.00" waitingCount="0" stopTime="0.00" timeLoss="10.57" rerouteNo="0" devices="tripinfo_up_56" vType="typeSN" speedFactor="0.90" vaporized=""/>
    <tripinfo id="up_57" depart="114.00" departLane="53o_0" departPos="4.60" departSpeed="0.00" departDelay="8.00" arrival="134.00" arrivalLane="54i_0" arrivalPos="18.26" arrivalSpeed="11.56" duration="20.00" routeLength="116.05" waitingTime="0.00" waitingCount="0" stopTime="0.00" timeLoss="11.66" rerouteNo="0" devices="tripinfo_up_57" vType="typeSN" speedFactor="1.14" vaporized=""/>
    <tripinfo id="down_50" depart="118.00" departLane="54o_0" departPos="7.10" departSpeed="0.00" departDelay="29.00" arrival="138.00" arrivalLane="53i_0" arrivalPos="21.37" arrivalSpeed="10.61" duration="20.00" routeLength="113.64" waitingTime="0.00" waitingCount="0" stopTime="0.00" timeLoss="10.47" rerouteNo="0" devices="tripinfo_down_50" vType="typeNS" speedFactor="0.85" vaporized=""/>
    <tripinfo id="up_60" depart="119.00" departLane="53o_0" departPos="4.60" departSpeed="0.00" departDelay="11.00" arrival="140.00" arrivalLane="54i_0" arrivalPos="18.26" arrivalSpeed="10.94" duration="21.00" routeLength="116.05" waitingTime="0.00" waitingCount="0" stopTime="0.00" timeLoss="12.59" rerouteNo="0" devices="tripinfo_up_60" vType="typeSN" speedFactor="1.08" vaporized=""/>
    <tripinfo id="left_41" depart="74.00" departLane="52o_0" departPos="4.10" departSpeed="0.00" departDelay="0.00" arrival="155.00" arrivalLane="51i_0" arrivalPos="26.01" arrivalSpeed="8.85" duration="81.00" routeLength="159.50" waitingTime="47.00" waitingCount="1" stopTime="0.00" timeLoss="69.81" rerouteNo="0" devices="tripinfo_left_41" vType="typeEW" speedFactor="0.96" vaporized=""/>
    <tripinfo id="left_44" depart="79.00" departLane="52o_0" departPos="4.10" departSpeed="0.00" departDelay="3.00" arrival="157.00" arrivalLane="51i_0" arrivalPos="26.01" arrivalSpeed="9.42" duration="78.00" routeLength="159.50" waitingTime="44.00" waitingCount="1" stopTime="0.00" timeLoss="67.17" rerouteNo="0" devices="tripinfo_left_44" vType="typeEW" speedFactor="1.04" vaporized=""/>
    <tripinfo id="right_35" depart="74.00" departLane="51o_0" departPos="5.10" departSpeed="0.00" departDelay="10.00" arrival="157.00" arrivalLane="52i_0" arrivalPos="21.71" arrivalSpeed="10.92" duration="83.00" routeLength="158.55" waitingTime="49.00" waitingCount="1" stopTime="0.00" timeLoss="70.80" rerouteNo="0" devices="tripinfo_right_35" vType="typeWE" speedFactor="1.02" vaporized=""/>
    <tripinfo id="left_45" depart="85.00" departLane="52o_0" departPos="4.10" departSpeed="0.00" departDelay="7.00" arrival="159.00" arrivalLane="51i_0" arrivalPos="26.01" arrivalSpeed="9.92" duration="74.00" routeLength="159.50" waitingTime="39.00" waitingCount="1" stopTime="0.00" timeLoss="63.37" rerouteNo="0" devices="tripinfo_left_45" vType="typeEW" speedFactor="1.09" vaporized=""/>
    <tripinfo id="right_38" depart="80.00" departLane="51o_0" departPos="5.10" departSpeed="0.00" departDelay="11.00" arrival="159.00" arrivalLane="52i_0" arrivalPos="21.71" arrivalSpeed="10.58" duration="79.00" routeLength="158.55" waitingTime="46.00" waitingCount="1" stopTime="0.00" timeLoss="67.71" rerouteNo="0" devices="tripinfo_right_38" vType="typeWE" speedFactor="1.10" vaporized=""/>
    <tripinfo id="left_47" depart="91.00" departLane="52o_0" departPos="4.10" departSpeed="0.00" departDelay="8.00" arrival="161.00" arrivalLane="51i_0" arrivalPos="26.01" arrivalSpeed="10.23" duration="70.00" routeLength="159.50" waitingTime="36.00" waitingCount="1" stopTime="0.00" timeLoss="58.05" rerouteNo="0" devices="tripinfo_left_47" vType="typeEW" speedFactor="0.90" vaporized=""/>
    <tripinfo id="right_43" depart="85.00" departLane="51o_0" departPos="5.10" departSpeed="0.00" departDelay="9.00" arrival="161.00" arrivalLane="52i_0" arrivalPos="21.71" arrivalSpeed="11.48" duration="76.00" routeLength="158.55" waitingTime="42.00" waitingCount="1" stopTime="0.00" timeLoss="63.90" rerouteNo="0" devices="tripinfo_right_43" vType="typeWE" speedFactor="1.04" vaporized=""/>
    <tripinfo id="left_49" depart="96.00" departLane="52o_0" departPos="4.10" departSpeed="0.00" departDelay="8.00" arrival="163.00" arrivalLane="51i_0" arrivalPos="26.01" arrivalSpeed="10.79" duration="67.00" routeLength="159.50" waitingTime="31.00" waitingCount="1" stopTime="0.00" timeLoss="54.34" rerouteNo="0" devices="tripinfo_left_49" vType="typeEW" speedFactor="0.85" vaporized=""/>
    <tripinfo id="right_46" depart="90.00" departLane="51o_0" departPos="5.10" departSpeed="0.00" departDelay="9.00" arrival="163.00" arrivalLane="52i_0" arrivalPos="21.71" arrivalSpeed="11.80" duration="73.00" routeLength="158.55" waitingTime="38.00" waitingCount="1" stopTime="0.00" timeLoss="60.38" rerouteNo="0" devices="tripinfo_right_46" vType="typeWE" speedFactor="1.00" vaporized=""/>
    <tripinfo id="right_51" depart="95.00" departLane="51o_0" departPos="5.10" departSpeed="0.00" departDelay="3.00" arrival="164.00" arrivalLane="52i_0" arrivalPos="21.71" arrivalSpeed="11.94" duration="69.00" routeLength="158.55" waitingTime="37.00" waitingCount="1" stopTime="0.00" timeLoss="58.18" rerouteNo="0" devices="tripinfo_right_51" vType="typeWE" speedFactor="1.17" vaporized=""/>
    <tripinfo id="left_62" depart="116.00" departLane="52o_0" departPos="4.10" departSpeed="0.00" departDelay="0.00" arrival="165.00" arrivalLane="51i_0" arrivalPos="26.01" arrivalSpeed="11.08" duration="49.00" routeLength="159.50" waitingTime="14.00" waitingCount="1" stopTime="0.00" timeLoss="37.96" rerouteNo="0" devices="tripinfo_left_62" vType="typeEW" speedFactor="1.02" vaporized=""/>
    <tripinfo id="right_59" depart="108.00" departLane="51o_0" departPos="5.10" departSpeed="0.00" departDelay="0.00" arrival="166.00" arrivalLane="52i_0" arrivalPos="21.71" arrivalSpeed="11.93" duration="58.00" routeLength="158.55" waitingTime="26.00" waitingCount="1" stopTime="0.00" timeLoss="45.61" rerouteNo="0" devices="tripinfo_right_59" vType="typeWE" speedFactor="0.97" vaporized=""/>
    <tripinfo id="left_63" depart="121.00" departLane="52o_0" departPos="4.10" departSpeed="0.00" departDelay="4.00" arrival="167.00" arrivalLane="51i_0" arrivalPos="26.01" arrivalSpeed="10.91" duration="46.00" routeLength="159.50" waitingTime="10.00" waitingCount="1" stopTime="0.00" timeLoss="34.70" rerouteNo="0" devices="tripinfo_left_63" vType="typeEW" speedFactor="0.99" vaporized=""/>
    <tripinfo id="right_61" depart="115.00" departLane="51o_0" departPos="5.10" departSpeed="0.00" departDelay="0.00" arrival="168.00" arrivalLane="52i_0" arrivalPos="21.71" arrivalSpeed="12.45" duration="53.00" routeLength="158.55" waitingTime="22.00" waitingCount="1" stopTime="0.00" timeLoss="41.42" rerouteNo="0" devices="tripinfo_right_61" vType="typeWE" speedFactor="1.12" vaporized=""/>
    <tripinfo id="left_64" depart="126.00" departLane="52o_0" departPos="4.10" departSpeed="0.00" departDelay="6.00" arrival="169.00" arrivalLane="51i_0" arrivalPos="26.01" arrivalSpeed="11.50" duration="43.00" routeLength="159.50" waitingTime="9.00" waitingCount="1" stopTime="0.00" timeLoss="31.36" rerouteNo="0" devices="tripinfo_left_64" vType="typeEW" speedFactor="0.94" vaporized=""/>
    <tripinfo id="right_68" depart="126.00" departLane="51o_0" departPos="5.10" departSpeed="0.00" departDelay="0.00" arrival="170.00" arrivalLane="52i_0" arrivalPos="21.71" arrivalSpeed="12.44" duration="44.00" routeLength="158.55" waitingTime="15.00" waitingCount="1" stopTime="0.00" timeLoss="31.62" rerouteNo="0" devices="tripinfo_right_68" vType="typeWE" speedFactor="1.04" vaporized=""/>
    <tripinfo id="left_65" depart="131.00" departLane="52o_0" departPos="4.10" departSpeed="0.00" departDelay="8.00" arrival="171.00" arrivalLane="51i_0" arrivalPos="26.01" arrivalSpeed="11.48" duration="40.00" routeLength="159.50" waitingTime="6.00" waitingCount="1" stopTime="0.00" timeLoss="27.60" rerouteNo="0" devices="tripinfo_left_65" vType="typeEW" speedFactor="0.88" vaporized=""/>
    <tripinfo id="left_66" depart="136.00" departLane="52o_0" departPos="4.10" departSpeed="0.00" departDelay="12.00" arrival="173.00" arrivalLane="51i_0" arrivalPos="26.01" arrivalSpeed="11.60" duration="37.00" routeLength="159.50" waitingTime="4.00" waitingCount="1" stopTime="0.00" timeLoss="25.11" rerouteNo="0" devices="tripinfo_left_66" vType="typeEW" speedFactor="0.91" vaporized=""/>
    <tripinfo id="right_69" depart="150.00" departLane="51o_0" departPos="5.10" departSpeed="0.00" departDelay="23.00" arrival="173.00" arrivalLane="52i_0" arrivalPos="21.71" arrivalSpeed="12.19" duration="23.00" routeLength="158.55" waitingTime="0.00" waitingCount="0" stopTime="0.00" timeLoss="10.68" rerouteNo="0" devices="tripinfo_right_69" vType="typeWE" speedFactor="1.02" vaporized=""/>
    <tripinfo id="left_67" depart="141.00" departLane="52o_0" departPos="4.10" departSpeed="0.00" departDelay="16.00" arrival="175.00" arrivalLane="51i_0" arrivalPos="26.01" arrivalSpeed="11.67" duration="34.00" routeLength="159.50" waitingTime="0.00" waitingCount="0" stopTime="0.00" timeLoss="21.88" rerouteNo="0" devices="tripinfo_left_67" vType="typeEW" speedFactor="0.91" vaporized=""/>
    <tripinfo id="left_70" depart="146.00" departLane="52o_0" departPos="4.10" departSpeed="0.00" departDelay="17.00" arrival="176.00" arrivalLane="51i_0" arrivalPos="26.01" arrivalSpeed="11.81" duration="30.00" routeLength="159.50" waitingTime="0.00" waitingCount="0" stopTime="0.00" timeLoss="18.93" rerouteNo="0" devices="tripinfo_left_70" vType="typeEW" speedFactor="1.02" vaporized=""/>
    <tripinfo id="left_73" depart="152.00" departLane="52o_0" departPos="4.10" departSpeed="0.00" departDelay="20.00" arrival="178.00" arrivalLane="51i_0" arrivalPos="26.01" arrivalSpeed="12.52" duration="26.00" routeLength="159.50" waitingTime="0.00" waitingCount="0" stopTime="0.00" timeLoss="14.78" rerouteNo="0" devices="tripinfo_left_73" vType="typeEW" speedFactor="1.06" vaporized=""/>
    <tripinfo id="right_72" depart="155.00" departLane="51o_0" departPos="5.10" departSpeed="0.00" departDelay="23.00" arrival="179.00" arrivalLane="52i_0" arrivalPos="21.71" arrivalSpeed="11.36" duration="24.00" routeLength="158.55" waitingTime="0.00" waitingCount="0" stopTime="0.00" timeLoss="11.10" rerouteNo="0" devices="tripinfo_right_72" vType="typeWE" speedFactor="0.94" vaporized=""/>
    <tripinfo id="up_75" depart="134.00" departLane="53o_0" departPos="4.60" departSpeed="0.00" departDelay="0.00" arrival="191.00" arrivalLane="54i_0" arrivalPos="18.26" arrivalSpeed="8.30" duration="57.00" routeLength="116.05" waitingTime="27.00" waitingCount="1" stopTime="0.00" timeLoss="48.15" rerouteNo="0" devices="tripinfo_up_75" vType="typeSN" speedFactor="0.98" vaporized=""/>
    <tripinfo id="down_53" depart="124.00" departLane="54o_0" departPos="7.10" departSpeed="0.00" departDelay="26.00" arrival="191.00" arrivalLane="53i_0" arrivalPos="21.37" arrivalSpeed="8.47" duration="67.00" routeLength="113.64" waitingTime="39.00" waitingCount="1" stopTime="0.00" timeLoss="59.96" rerouteNo="0" devices="tripinfo_down_53" vType="typeNS" speedFactor="1.10" vaporized=""/>
    <tripinfo id="up_77" depart="139.00" departLane="53o_0" departPos="4.60" departSpeed="0.00" departDelay="4.00" arrival="193.00" arrivalLane="54i_0" arrivalPos="18.26" arrivalSpeed="8.78" duration="54.00" routeLength="116.05" waitingTime="25.00" waitingCount="1" stopTime="0.00" timeLoss="45.08" rerouteNo="0" devices="tripinfo_up_77" vType="typeSN" speedFactor="0.98" vaporized=""/>
    <tripinfo id="down_54" depart="130.00" departLane="54o_0" departPos="7.10" departSpeed="0.00" departDelay="29.00" arrival="194.00" arrivalLane="53i_0" arrivalPos="21.37" arrivalSpeed="10.45" duration="64.00" routeLength="113.64" waitingTime="37.00" waitingCount="1" stopTime="0.00" timeLoss="56.05" rerouteNo="0" devices="tripinfo_down_54" vType="typeNS" speedFactor="1.00" vaporized=""/>
    <tripinfo id="up_82" depart="145.00" departLane="53o_0" departPos="4.60" departSpeed="0.00" departDelay="0.00" arrival="195.00" arrivalLane="54i_0" arrivalPos="18.26" arrivalSpeed="9.73" duration="50.00" routeLength="116.05" waitingTime="20.00" waitingCount="1" stopTime="0.00" timeLoss="41.05" rerouteNo="0" devices="tripinfo_up_82" vType="typeSN" speedFactor="1.02" vaporized=""/>